/*--------------------------------*- C++ -*----------------------------------*\
| =========                 |                                                 |
| \\      /  F ield         | OpenFOAM: The Open Source CFD Toolbox           |
|  \\    /   O peration     | Version:  2.3.0                                 |
|   \\  /    A nd           | Web:      www.OpenFOAM.org                      |
|    \\/     M anipulation  |                                                 |
\*---------------------------------------------------------------------------*/
FoamFile
{
    version     2.0;
    format      ascii;
    class       volScalarField;
    location    "0.015";
    object      T;
}
// * * * * * * * * * * * * * * * * * * * * * * * * * * * * * * * * * * * * * //

dimensions      [0 0 0 1 0 0 0];

internalField   nonuniform List<scalar> 
12225
(
531.959
514.333
509.278
508.156
507.554
507.301
506.947
506.754
506.499
506.306
506.137
505.962
505.839
505.714
505.595
505.532
505.42
505.154
547.966
537.068
529.251
525.232
522.845
521.675
520.686
520.001
519.361
518.786
518.304
517.814
517.397
517.054
516.719
516.529
516.259
516.044
550.64
547.943
543.703
540.119
537.197
535.344
533.859
532.712
531.748
530.91
530.187
529.465
528.788
528.192
527.683
527.287
527
526.649
550.078
550.185
549.198
547.955
546.486
545.353
544.28
543.321
542.448
541.668
540.985
540.271
539.552
538.815
538.185
537.601
537.242
536.811
549.904
550.097
549.973
549.866
549.547
549.291
548.944
548.596
548.251
547.908
547.602
547.23
546.82
546.328
545.879
545.41
545.109
544.755
549.921
550.011
549.943
549.981
549.944
549.959
549.908
549.863
549.818
549.752
549.701
549.613
549.506
549.346
549.191
549.003
548.88
548.725
549.943
550.006
549.947
549.968
549.955
549.99
549.981
549.983
549.988
549.978
549.979
549.972
549.965
549.945
549.922
549.883
549.854
549.813
549.946
550.004
549.958
549.972
549.963
549.992
549.986
549.984
549.99
549.984
549.985
549.986
549.99
549.993
549.993
549.986
549.978
549.967
549.959
549.994
549.974
549.966
549.97
549.99
549.987
549.985
549.991
549.986
549.982
549.98
549.98
549.984
549.986
549.986
549.984
549.979
549.971
549.982
549.977
549.961
549.974
549.988
549.984
549.982
549.987
549.985
549.981
549.976
549.973
549.973
549.976
549.978
549.981
549.981
549.972
549.974
549.987
549.963
549.979
549.988
549.981
549.977
549.981
549.984
549.982
549.976
549.97
549.967
549.966
549.967
549.971
549.974
549.987
549.969
549.985
549.963
549.975
549.984
549.98
549.975
549.977
549.981
549.983
549.98
549.975
549.97
549.966
549.964
549.964
549.966
549.985
549.971
549.978
549.966
549.972
549.98
549.983
549.983
549.983
549.985
549.987
549.986
549.984
549.979
549.974
549.969
549.965
549.964
549.976
549.985
549.985
549.98
549.975
549.976
549.98
549.981
549.979
549.976
549.974
549.973
549.973
549.972
549.97
549.968
549.966
549.965
549.969
549.971
549.971
549.979
549.979
549.974
549.97
549.969
549.97
549.971
549.973
549.974
549.974
549.972
549.969
549.966
549.963
549.962
549.965
549.971
549.97
549.971
549.977
549.982
549.983
549.982
549.978
549.975
549.974
549.975
549.976
549.977
549.975
549.971
549.967
549.963
549.938
549.956
549.967
549.968
549.97
549.973
549.978
549.981
549.98
549.977
549.972
549.968
549.966
549.966
549.966
549.965
549.963
549.961
549.944
549.955
549.968
549.974
549.972
549.97
549.973
549.98
549.983
549.98
549.975
549.968
549.965
549.963
549.965
549.966
549.967
549.968
549.951
549.958
549.958
549.974
549.977
549.973
549.973
549.976
549.978
549.977
549.972
549.966
549.962
549.961
549.962
549.965
549.967
549.967
549.946
549.967
549.962
549.976
549.977
549.971
549.971
549.976
549.98
549.981
549.979
549.974
549.969
549.966
549.965
549.964
549.964
549.963
549.949
549.962
549.962
549.977
549.979
549.973
549.971
549.972
549.973
549.975
549.975
549.974
549.971
549.968
549.965
549.962
549.959
549.957
549.968
549.973
549.967
549.977
549.978
549.971
549.97
549.971
549.973
549.975
549.976
549.975
549.972
549.967
549.963
549.959
549.956
549.954
549.964
549.982
549.969
549.968
549.97
549.969
549.975
549.978
549.978
549.976
549.974
549.973
549.97
549.967
549.963
549.96
549.958
549.957
549.966
549.981
549.973
549.973
549.975
549.971
549.976
549.979
549.978
549.974
549.97
549.967
549.963
549.959
549.956
549.953
549.953
549.955
549.961
549.981
549.967
549.968
549.974
549.974
549.981
549.982
549.978
549.972
549.963
549.953
549.94
549.926
549.913
549.903
549.897
549.898
549.959
549.987
549.974
549.98
549.983
549.958
549.919
549.868
549.811
549.751
549.68
549.594
549.493
549.392
549.301
549.23
549.172
549.131
549.947
550.055
549.993
549.805
549.506
549.123
548.71
548.297
547.905
547.526
547.129
546.705
546.278
545.897
545.585
545.349
545.16
544.995
550.181
549.987
548.591
546.778
544.959
543.342
541.982
540.851
539.883
539.003
538.149
537.344
536.633
536.069
535.638
535.307
535.017
534.729
550.537
545.09
538.69
533.802
530.417
528.151
526.657
525.608
524.757
523.994
523.308
522.747
522.306
521.986
521.705
521.468
521.201
520.918
540.044
522.742
513.762
510.387
509.288
508.874
508.626
508.394
508.151
507.917
507.709
507.539
507.395
507.282
507.165
507.076
506.946
506.841
499.991
500.011
500.04
500.037
500.012
499.986
499.967
499.958
499.954
499.955
499.956
499.957
499.957
499.956
499.955
499.952
499.95
499.949
499.949
499.95
499.949
499.944
499.934
499.92
499.902
499.898
499.932
499.996
500.055
500.117
500.224
500.348
500.412
500.434
500.523
500.753
501.126
501.615
502.184
502.8
503.431
504.051
504.642
505.189
505.683
506.117
506.488
506.791
507.029
507.203
507.317
507.373
507.378
507.339
507.258
507.143
506.997
506.824
506.628
506.412
506.179
505.93
505.668
505.394
505.107
504.805
504.489
504.158
503.816
503.466
503.113
502.764
502.423
502.098
501.792
501.512
501.259
501.037
500.846
500.687
500.556
500.447
500.352
500.261
500.168
500.069
499.965
499.861
499.765
499.685
499.626
499.592
499.584
499.598
499.632
499.68
499.737
499.797
499.854
499.905
499.948
499.981
500.007
500.025
500.038
500.048
500.055
500.06
500.064
500.066
500.067
500.067
500.067
500.066
500.065
500.064
500.063
500.063
500.064
500.064
500.065
500.067
500.069
500.071
500.073
500.076
500.079
500.081
500.084
500.086
500.087
500.089
500.089
500.089
500.088
500.085
500.082
500.078
500.073
500.068
500.062
500.055
500.048
500.041
500.034
500.027
500.021
500.015
500.011
500.007
500.004
500.002
500.001
500.001
500.002
500.003
500.005
500.008
500.01
500.012
500.014
500.016
500.018
500.018
500.019
500.018
500.017
500.016
500.014
500.012
500.009
500.006
500.003
500
499.997
499.994
499.991
499.988
499.985
499.984
499.837
499.629
499.572
499.531
499.5
499.486
499.473
499.465
499.469
499.49
499.528
499.581
499.642
499.708
499.776
499.839
499.898
499.958
500.034
500.119
500.184
500.193
500.157
500.145
500.231
500.439
500.641
500.599
500.298
500
499.934
500.197
500.848
501.931
503.442
505.322
507.475
509.793
512.173
514.527
516.78
518.881
520.795
522.502
523.996
525.274
526.34
527.199
527.863
528.335
528.627
528.75
528.723
528.555
528.261
527.851
527.335
526.719
526.007
525.2
524.297
523.293
522.185
520.97
519.648
518.226
516.717
515.146
513.548
511.964
510.434
508.998
507.682
506.504
505.467
504.567
503.795
503.136
502.575
502.098
501.694
501.348
501.05
500.784
500.537
500.3
500.067
499.84
499.627
499.443
499.301
499.212
499.179
499.201
499.27
499.373
499.496
499.625
499.748
499.858
499.95
500.023
500.077
500.117
500.146
500.167
500.181
500.191
500.197
500.2
500.2
500.199
500.195
500.191
500.187
500.182
500.178
500.175
500.171
500.169
500.167
500.165
500.165
500.165
500.166
500.168
500.171
500.174
500.179
500.183
500.188
500.192
500.196
500.198
500.199
500.199
500.196
500.191
500.184
500.174
500.163
500.149
500.134
500.118
500.101
500.084
500.067
500.051
500.036
500.023
500.012
500.003
499.997
499.993
499.991
499.991
499.994
499.998
500.003
500.008
500.015
500.021
500.026
500.032
500.036
500.039
500.042
500.043
500.043
500.042
500.04
500.037
500.033
500.028
500.023
500.016
500.01
500.004
499.997
499.989
499.821
499.675
499.695
499.706
499.706
499.69
499.686
499.737
499.841
499.984
500.142
500.291
500.415
500.515
500.59
500.62
500.599
500.568
500.587
500.672
500.784
500.857
500.805
500.558
500.163
499.778
499.566
499.675
500.282
501.557
503.594
506.41
509.952
514.088
518.617
523.307
527.928
532.284
536.232
539.689
542.626
545.059
547.03
548.595
549.817
550.757
551.468
551.996
552.383
552.679
552.889
553.033
553.104
553.105
553.034
552.879
552.636
552.291
551.829
551.229
550.47
549.526
548.368
546.967
545.289
543.302
540.981
538.321
535.343
532.108
528.71
525.278
521.929
518.783
515.908
513.346
511.099
509.145
507.45
505.984
504.725
503.661
502.784
502.083
501.539
501.124
500.802
500.538
500.304
500.089
499.891
499.717
499.578
499.483
499.433
499.428
499.463
499.529
499.617
499.716
499.815
499.907
499.985
500.046
500.092
500.123
500.143
500.155
500.162
500.165
500.165
500.163
500.16
500.157
500.153
500.151
500.148
500.147
500.147
500.148
500.15
500.152
500.155
500.159
500.162
500.166
500.17
500.174
500.177
500.179
500.181
500.182
500.182
500.18
500.176
500.171
500.164
500.156
500.146
500.135
500.123
500.11
500.097
500.084
500.072
500.06
500.049
500.04
500.033
500.027
500.024
500.022
500.022
500.023
500.025
500.029
500.033
500.037
500.042
500.046
500.049
500.052
500.054
500.055
500.054
500.053
500.051
500.048
500.045
500.042
500.038
500.034
500.031
500.027
500.024
500.02
500.018
500.012
500.011
500.003
499.976
499.973
499.981
499.899
499.815
499.792
499.88
500.069
500.295
500.504
500.662
500.755
500.803
500.873
501.01
501.172
501.286
501.316
501.26
501.11
500.866
500.566
500.315
500.278
500.659
501.654
503.423
506.081
509.682
514.184
519.424
525.136
530.971
536.553
541.539
545.676
548.832
550.994
552.249
552.747
552.676
552.218
551.539
550.776
550.037
549.397
548.909
548.605
548.491
548.558
548.789
549.16
549.649
550.23
550.886
551.6
552.365
553.17
554.002
554.844
555.673
556.467
557.204
557.853
558.373
558.688
558.686
558.212
557.092
555.174
552.374
548.719
544.356
539.546
534.577
529.73
525.217
521.156
517.582
514.471
511.775
509.447
507.457
505.791
504.439
503.382
502.583
501.984
501.522
501.14
500.801
500.488
500.203
499.957
499.761
499.624
499.549
499.53
499.561
499.63
499.721
499.822
499.921
500.007
500.077
500.13
500.167
500.191
500.206
500.213
500.216
500.215
500.211
500.206
500.2
500.193
500.187
500.181
500.175
500.171
500.167
500.164
500.162
500.16
500.159
500.157
500.155
500.153
500.151
500.148
500.145
500.14
500.135
500.129
500.122
500.113
500.105
500.095
500.085
500.075
500.066
500.057
500.05
500.044
500.04
500.038
500.039
500.043
500.049
500.058
500.069
500.082
500.097
500.112
500.128
500.144
500.158
500.17
500.18
500.187
500.191
500.192
500.189
500.183
500.174
500.162
500.149
500.134
500.119
500.103
500.089
500.075
500.063
500.052
500.045
500.037
500.035
500.029
500.032
500.024
500.005
499.993
499.978
499.874
499.829
499.916
500.134
500.409
500.653
500.826
500.961
501.141
501.4
501.678
501.889
501.983
501.969
501.896
501.826
501.84
502.064
502.672
503.851
505.77
508.545
512.217
516.746
521.99
527.692
533.491
538.963
543.688
547.328
549.682
550.713
550.535
549.371
547.499
545.209
542.762
540.372
538.188
536.309
534.784
533.63
532.84
532.401
532.294
532.439
532.848
533.465
534.256
535.168
536.137
537.109
538.038
538.914
539.758
540.61
541.513
542.489
543.554
544.724
546.034
547.535
549.292
551.352
553.697
556.202
558.602
560.498
561.422
560.952
558.869
555.23
550.372
544.792
539.004
533.411
528.259
523.647
519.574
515.998
512.88
510.201
507.959
506.149
504.737
503.661
502.833
502.169
501.602
501.1
500.652
500.268
499.96
499.736
499.597
499.537
499.545
499.603
499.692
499.797
499.902
499.998
500.079
500.146
500.198
500.238
500.269
500.292
500.31
500.323
500.332
500.338
500.341
500.341
500.339
500.335
500.331
500.325
500.318
500.31
500.302
500.293
500.284
500.274
500.265
500.256
500.246
500.238
500.23
500.223
500.216
500.211
500.206
500.202
500.199
500.197
500.195
500.194
500.193
500.193
500.194
500.196
500.198
500.2
500.204
500.209
500.214
500.22
500.226
500.233
500.241
500.248
500.255
500.261
500.266
500.27
500.271
500.271
500.268
500.264
500.257
500.248
500.237
500.225
500.211
500.198
500.184
500.171
500.159
500.148
500.138
500.131
500.123
500.121
500.113
500.118
500.106
500.072
500.107
500.051
499.928
499.915
500.073
500.359
500.67
500.92
501.125
501.383
501.763
502.187
502.515
502.717
502.882
503.122
503.547
504.283
505.476
507.287
509.85
513.228
517.391
522.205
527.452
532.833
537.997
542.562
546.175
548.57
549.619
549.337
547.875
545.478
542.448
539.097
535.722
532.569
529.808
527.529
525.746
524.421
523.49
522.88
522.53
522.4
522.49
522.791
523.343
524.186
525.378
526.949
528.876
531.047
533.261
535.283
536.932
538.164
539.067
539.767
540.348
540.835
541.223
541.515
541.762
542.088
542.701
543.86
545.815
548.705
552.427
556.521
560.203
562.549
562.834
560.816
556.788
551.397
545.365
539.279
533.506
528.212
523.434
519.163
515.398
512.16
509.473
507.327
505.662
504.377
503.359
502.513
501.784
501.149
500.611
500.18
499.862
499.655
499.549
499.525
499.559
499.629
499.715
499.802
499.88
499.946
500
500.043
500.077
500.106
500.13
500.151
500.17
500.187
500.203
500.217
500.231
500.243
500.254
500.264
500.273
500.28
500.286
500.29
500.293
500.295
500.296
500.296
500.295
500.294
500.292
500.291
500.291
500.291
500.292
500.294
500.296
500.299
500.302
500.306
500.309
500.312
500.314
500.315
500.315
500.313
500.311
500.307
500.302
500.295
500.288
500.279
500.27
500.261
500.251
500.242
500.233
500.224
500.215
500.207
500.2
500.193
500.187
500.181
500.177
500.173
500.17
500.168
500.167
500.167
500.168
500.17
500.172
500.176
500.178
500.183
500.183
500.19
500.186
500.059
500.118
500.058
499.946
499.968
500.175
500.503
500.844
501.127
501.409
501.814
502.376
502.958
503.427
503.85
504.447
505.418
506.907
509.046
511.941
515.643
520.087
525.07
530.295
535.432
540.153
544.158
547.185
549.028
549.571
548.8
546.801
543.75
539.899
535.58
531.179
527.096
523.665
521.083
519.373
518.413
518
517.919
517.995
518.11
518.187
518.165
517.946
517.534
516.915
516.146
515.371
514.862
515.018
516.267
518.877
522.727
527.224
531.546
535.11
537.84
539.991
541.804
543.372
544.647
545.512
545.871
545.711
545.103
544.225
543.435
543.311
544.507
547.447
551.95
557.072
561.373
563.534
562.925
559.747
554.744
548.784
542.562
536.505
530.811
525.553
520.781
516.566
512.982
510.062
507.768
505.991
504.594
503.456
502.494
501.673
500.987
500.445
500.049
499.796
499.667
499.635
499.669
499.741
499.825
499.907
499.977
500.032
500.072
500.1
500.119
500.131
500.139
500.144
500.148
500.151
500.155
500.16
500.165
500.171
500.178
500.186
500.195
500.204
500.213
500.222
500.231
500.239
500.246
500.252
500.258
500.263
500.267
500.27
500.274
500.277
500.28
500.282
500.285
500.287
500.289
500.29
500.291
500.291
500.29
500.288
500.284
500.279
500.273
500.265
500.256
500.245
500.233
500.22
500.207
500.193
500.179
500.165
500.152
500.14
500.129
500.119
500.111
500.104
500.099
500.097
500.096
500.098
500.101
500.107
500.114
500.122
500.131
500.142
500.152
500.162
500.172
500.182
500.189
500.197
500.066
500.13
500.073
499.974
500.013
500.242
500.595
500.963
501.283
501.633
502.159
502.891
503.687
504.448
505.313
506.582
508.52
511.276
514.916
519.416
524.602
530.122
535.521
540.377
544.383
547.342
549.111
549.577
548.682
546.443
542.967
538.48
533.353
528.117
523.418
519.876
517.887
517.482
518.332
519.907
521.673
523.254
524.483
525.364
525.984
526.439
526.785
527.117
527.306
527.177
526.43
524.717
521.781
517.666
512.964
508.835
506.703
507.671
511.795
517.736
523.586
528.395
532.322
535.815
539.081
542.011
544.403
546.253
547.678
548.66
548.935
548.19
546.488
544.566
543.736
545.238
549.36
555.035
560.302
563.343
563.311
560.441
555.595
549.712
543.488
537.316
531.384
525.818
520.759
516.353
512.695
509.783
507.514
505.736
504.302
503.106
502.097
501.261
500.603
500.126
499.821
499.664
499.622
499.657
499.735
499.828
499.918
499.997
500.06
500.108
500.143
500.167
500.182
500.191
500.196
500.198
500.197
500.196
500.194
500.192
500.19
500.189
500.189
500.19
500.192
500.194
500.198
500.201
500.205
500.209
500.213
500.216
500.219
500.222
500.224
500.225
500.226
500.226
500.226
500.225
500.225
500.223
500.222
500.22
500.218
500.216
500.213
500.21
500.206
500.202
500.197
500.192
500.185
500.178
500.17
500.161
500.152
500.142
500.131
500.121
500.11
500.1
500.091
500.083
500.076
500.071
500.068
500.067
500.068
500.071
500.076
500.083
500.092
500.102
500.112
500.124
500.134
500.147
500.154
500.166
500.055
500.114
500.071
499.99
500.033
500.265
500.628
501.016
501.364
501.751
502.349
503.226
504.262
505.385
506.779
508.778
511.661
515.564
520.46
526.133
532.151
537.915
542.83
546.511
548.813
549.702
549.157
547.181
543.856
539.392
534.155
528.705
523.779
520.188
518.563
519.057
521.189
523.994
526.422
527.738
527.74
526.696
525.116
523.5
522.222
521.52
521.578
522.473
524.23
526.842
530.151
533.679
536.45
536.999
533.995
527.219
518.115
509.421
504.16
504.305
509.221
515.958
522.178
527.552
532.5
536.979
540.414
542.574
543.899
545.131
546.811
548.862
550.554
550.836
549.096
546.093
543.931
544.682
548.832
554.889
560.358
563.226
562.807
559.597
554.589
548.679
542.44
536.176
530.092
524.403
519.334
515.051
511.594
508.882
506.758
505.058
503.662
502.5
501.547
500.802
500.263
499.915
499.729
499.668
499.687
499.752
499.833
499.914
499.986
500.046
500.093
500.129
500.156
500.176
500.191
500.202
500.209
500.214
500.217
500.219
500.219
500.217
500.215
500.213
500.21
500.207
500.205
500.203
500.202
500.2
500.199
500.199
500.198
500.197
500.196
500.195
500.193
500.192
500.19
500.188
500.186
500.184
500.182
500.18
500.179
500.178
500.177
500.177
500.177
500.177
500.177
500.177
500.176
500.175
500.173
500.17
500.166
500.16
500.153
500.145
500.136
500.126
500.116
500.106
500.096
500.087
500.08
500.074
500.07
500.069
500.069
500.072
500.077
500.083
500.091
500.1
500.108
500.119
500.126
500.137
500.04
500.083
500.055
499.997
500.036
500.247
500.603
501.004
501.37
501.757
502.362
503.32
504.565
506.029
507.9
510.537
514.201
518.967
524.723
531.115
537.478
542.998
547.033
549.293
549.781
548.65
546.076
542.252
537.455
532.115
526.842
522.416
519.653
519.097
520.631
523.299
525.612
526.224
524.566
521.038
516.67
512.521
509.232
506.977
505.666
505.139
505.11
505.492
506.242
507.62
510.02
514.167
520.676
529.101
536.992
540.65
537.541
528.119
515.768
505.486
501.61
504.611
511.253
518.616
526.019
533.326
539.444
543.386
545.202
545.558
545.347
545.452
546.5
548.703
551.215
552.076
549.998
546.215
543.808
545.159
550.158
556.486
561.331
563.02
561.449
557.475
552.098
546.027
539.669
533.302
527.208
521.675
516.922
513.03
509.94
507.506
505.568
503.996
502.713
501.684
500.895
500.334
499.979
499.792
499.728
499.743
499.799
499.87
499.94
500.001
500.05
500.088
500.117
500.14
500.157
500.172
500.184
500.195
500.204
500.211
500.217
500.221
500.223
500.223
500.222
500.22
500.218
500.215
500.212
500.209
500.206
500.203
500.2
500.197
500.195
500.193
500.191
500.188
500.187
500.185
500.183
500.181
500.18
500.179
500.179
500.179
500.18
500.181
500.183
500.186
500.188
500.191
500.193
500.195
500.196
500.196
500.195
500.191
500.186
500.18
500.171
500.162
500.151
500.14
500.128
500.117
500.107
500.098
500.091
500.086
500.083
500.082
500.083
500.086
500.091
500.097
500.104
500.112
500.119
500.126
500.026
500.046
500.027
499.991
500.024
500.2
500.528
500.931
501.309
501.673
502.216
503.151
504.504
506.216
508.431
511.5
515.691
521.022
527.286
534.031
540.493
545.719
548.939
549.925
548.93
546.334
542.444
537.56
532.117
526.756
522.3
519.595
519.163
520.79
523.365
525.215
524.894
521.991
517.384
512.685
509.237
507.423
506.793
506.734
506.962
507.422
508.16
509.008
509.807
510.242
510.018
509.257
509.36
512.784
520.775
530.987
538.411
538.86
531.359
518.527
506.237
500.333
501.858
508.048
516.538
526.023
534.642
540.813
544.517
546.538
547.481
547.777
547.452
546.715
546.973
549.293
552.092
552.29
549.029
544.996
543.861
547.122
553.232
559.105
562.289
562.049
558.99
554.123
548.255
541.891
535.386
529.08
523.295
518.27
514.098
510.736
508.057
505.916
504.193
502.811
501.727
500.916
500.353
500.005
499.826
499.767
499.783
499.837
499.903
499.965
500.018
500.059
500.09
500.113
500.13
500.145
500.158
500.171
500.183
500.194
500.205
500.213
500.22
500.225
500.228
500.23
500.23
500.229
500.228
500.225
500.223
500.22
500.217
500.214
500.211
500.209
500.206
500.204
500.202
500.2
500.198
500.197
500.196
500.195
500.195
500.196
500.197
500.198
500.201
500.203
500.207
500.21
500.213
500.215
500.217
500.218
500.218
500.216
500.212
500.206
500.199
500.19
500.181
500.17
500.159
500.147
500.137
500.127
500.119
500.112
500.107
500.104
500.104
500.104
500.107
500.111
500.116
500.121
500.127
500.131
500.021
500.023
499.998
499.976
500.006
500.143
500.415
500.794
501.181
501.525
501.965
502.767
504.076
505.876
508.264
511.558
516.012
521.6
528.086
535.019
541.58
546.702
549.555
549.872
547.909
544.187
539.275
533.743
528.235
523.502
520.3
519.154
520.058
522.248
524.243
524.423
521.975
517.502
512.689
509.134
507.204
506.001
504.488
502.73
501.769
502.141
503.208
504.711
506.842
509.803
513.042
515.177
515.197
514.588
516.952
523.872
532.273
537.099
535.576
527.858
516.145
505.576
501.281
504.089
512.012
522.491
532.389
539.384
543.257
545.151
546.103
546.894
548.355
549.549
548.755
547.171
547.852
550.927
552.853
550.895
546.541
543.863
545.588
551.07
557.313
561.396
562.076
559.677
555.156
549.381
542.964
536.356
529.955
524.09
518.978
514.69
511.184
508.352
506.076
504.254
502.816
501.713
500.909
500.362
500.03
499.861
499.806
499.82
499.869
499.928
499.983
500.028
500.061
500.085
500.101
500.115
500.127
500.14
500.154
500.169
500.183
500.197
500.209
500.219
500.227
500.233
500.237
500.24
500.242
500.242
500.241
500.239
500.237
500.234
500.231
500.228
500.225
500.222
500.219
500.216
500.213
500.211
500.209
500.208
500.207
500.206
500.206
500.207
500.209
500.211
500.213
500.216
500.219
500.222
500.224
500.225
500.226
500.225
500.224
500.22
500.215
500.209
500.202
500.194
500.185
500.175
500.166
500.157
500.149
500.143
500.137
500.133
500.13
500.129
500.129
500.13
500.133
500.136
500.14
500.143
500.024
500.037
500.001
499.967
499.984
500.082
500.289
500.617
501
501.341
501.679
502.265
503.362
505.046
507.373
510.632
515.137
520.825
527.307
534.185
540.913
546.44
549.554
549.728
547.343
543.166
537.89
532.138
526.612
522.108
519.374
518.842
520.309
522.722
524.373
523.72
520.366
515.396
510.651
507.324
505.061
502.565
499.424
497.104
498.057
500.911
502.799
503.3
503.527
504.735
507.379
510.753
513.29
514.476
516.615
522.539
531.172
537.358
536.742
529.712
519.376
508.921
502.267
502.392
509.244
520.114
530.931
538.863
543.514
545.835
547.031
547.094
546.576
547.744
550.088
550.222
548.034
547.41
550.03
552.721
551.783
547.655
544.287
545.048
549.951
556.21
560.722
561.929
559.917
555.543
549.712
543.15
536.429
530.002
524.178
519.115
514.839
511.293
508.391
506.044
504.178
502.731
501.648
500.878
500.366
500.058
499.903
499.851
499.863
499.905
499.957
500.004
500.039
500.063
500.077
500.086
500.093
500.102
500.113
500.126
500.14
500.156
500.171
500.185
500.197
500.208
500.217
500.224
500.229
500.233
500.236
500.237
500.237
500.236
500.234
500.231
500.228
500.225
500.221
500.217
500.214
500.21
500.207
500.204
500.201
500.199
500.198
500.197
500.197
500.198
500.199
500.201
500.204
500.207
500.21
500.213
500.215
500.217
500.218
500.219
500.218
500.215
500.212
500.208
500.202
500.196
500.19
500.183
500.176
500.17
500.164
500.159
500.154
500.151
500.149
500.148
500.147
500.148
500.149
500.151
500.031
500.07
500.056
500.011
499.987
500.038
500.182
500.432
500.77
501.111
501.4
501.773
502.533
503.897
505.929
508.822
512.992
518.609
525.214
532.067
538.668
544.556
548.78
550.185
548.36
543.952
538.087
531.825
526.088
521.694
519.22
518.837
520.204
522.383
523.896
523.314
520.157
515.35
510.666
507.427
505.521
503.923
501.85
501.374
504.566
508.075
509.452
508.953
508.41
509.237
511.397
513.802
515.242
515.706
517.279
522.396
530.424
537.111
537.848
531.334
520.623
510.05
503.011
502.259
508.64
519.563
530.481
538.315
542.843
545.063
546.359
548.052
548.615
547.484
547.811
550.107
550.613
548.41
547.377
549.731
552.599
552.071
548.168
544.664
545.07
549.646
555.766
560.351
561.736
559.845
555.424
549.397
542.617
535.779
529.38
523.686
518.771
514.599
511.097
508.196
505.842
503.986
502.573
501.54
500.823
500.354
500.075
499.934
499.887
499.897
499.937
499.984
500.026
500.056
500.073
500.081
500.084
500.086
500.09
500.096
500.105
500.116
500.127
500.139
500.151
500.161
500.17
500.179
500.186
500.192
500.197
500.201
500.203
500.205
500.206
500.206
500.205
500.204
500.202
500.199
500.196
500.192
500.188
500.184
500.18
500.177
500.174
500.171
500.169
500.168
500.168
500.169
500.171
500.174
500.178
500.182
500.186
500.191
500.195
500.199
500.202
500.204
500.205
500.204
500.203
500.2
500.197
500.192
500.187
500.182
500.176
500.171
500.165
500.161
500.157
500.154
500.151
500.15
500.149
500.149
500.047
500.106
500.108
500.101
500.074
500.053
500.094
500.247
500.521
500.853
501.142
501.388
501.803
502.697
504.242
506.541
509.924
514.855
521.332
528.583
535.561
541.593
546.325
549.198
549.455
546.776
541.637
535.063
528.293
522.587
518.996
517.978
519.216
521.697
523.944
524.472
522.457
518.234
513.132
508.662
505.536
503.708
502.285
501.745
502.316
503.199
503.723
504.191
505.416
507.864
511.125
514.143
515.949
516.987
519.639
525.805
533.736
538.589
536.79
528.831
518.043
508.33
502.732
503.381
510.674
521.788
532.435
539.906
543.95
546.058
546.663
546.851
548.404
549.314
548.357
548.502
550.339
550.412
548.173
547.411
549.936
552.712
552.032
548.16
544.852
545.41
549.939
555.869
560.282
561.571
559.57
554.93
548.604
541.565
534.618
528.278
522.75
518.024
514.006
510.608
507.778
505.486
503.698
502.36
501.403
500.749
500.326
500.074
499.945
499.9
499.909
499.945
499.989
500.028
500.057
500.074
500.083
500.088
500.092
500.097
500.104
500.112
500.121
500.129
500.137
500.144
500.15
500.155
500.159
500.163
500.166
500.17
500.173
500.176
500.178
500.18
500.182
500.182
500.182
500.182
500.18
500.178
500.175
500.172
500.167
500.163
500.159
500.155
500.151
500.148
500.146
500.145
500.145
500.146
500.149
500.152
500.156
500.16
500.165
500.17
500.174
500.178
500.181
500.183
500.183
500.183
500.181
500.179
500.175
500.171
500.167
500.163
500.158
500.154
500.15
500.147
500.144
500.143
500.141
500.141
500.098
500.221
500.177
500.146
500.152
500.167
500.17
500.193
500.312
500.553
500.841
501.077
501.297
501.736
502.673
504.265
506.676
510.316
515.651
522.616
530.357
537.639
543.495
547.454
549.241
548.606
545.512
540.323
533.798
527.013
521.239
517.623
516.72
518.235
521.096
523.799
525
524.045
521.259
517.552
513.919
511.05
508.997
507.842
507.561
508.092
509.257
511.009
513.283
515.685
517.506
518.293
518.432
519.469
523.417
530.408
537.257
539.503
534.804
524.651
513.236
504.641
501.441
504.848
514.041
525.513
535.306
541.786
544.98
546.319
547.662
548.105
548.071
549.087
549.475
548.704
549.226
550.625
549.884
547.615
547.57
550.553
553.016
551.754
547.76
544.886
545.948
550.626
556.343
560.424
561.411
559.107
554.118
547.444
540.157
533.128
526.857
521.485
516.942
513.095
509.85
507.161
505.003
503.343
502.12
501.258
500.674
500.297
500.069
499.949
499.904
499.907
499.934
499.969
500.001
500.026
500.043
500.055
500.067
500.079
500.092
500.106
500.121
500.135
500.148
500.159
500.167
500.173
500.178
500.181
500.183
500.184
500.186
500.187
500.188
500.189
500.191
500.192
500.193
500.194
500.194
500.193
500.192
500.191
500.189
500.186
500.183
500.179
500.176
500.172
500.169
500.166
500.164
500.162
500.16
500.16
500.159
500.16
500.16
500.16
500.161
500.161
500.161
500.16
500.159
500.158
500.157
500.155
500.152
500.15
500.148
500.146
500.144
500.143
500.142
500.14
500.14
500.139
500.14
500.139
500.182
500.432
500.408
500.287
500.196
500.169
500.192
500.226
500.268
500.374
500.565
500.781
500.953
501.14
501.553
502.418
503.886
506.164
509.673
514.86
521.745
529.653
537.414
543.865
548.241
550.184
549.627
546.733
541.889
535.698
528.999
522.835
518.239
515.888
515.823
517.418
519.654
521.487
522.327
522.079
521.057
519.747
518.522
517.623
517.182
517.145
517.403
517.785
518.072
518.051
517.787
517.829
519.203
523.241
530.267
537.822
541.357
537.782
528.118
516.298
506.461
501.433
502.516
509.57
520.525
531.754
540.019
544.598
546.862
547.458
547.684
548.504
548.794
549.027
549.695
549.409
548.866
549.851
550.689
549.101
547.077
548.076
551.518
553.34
551.217
547.129
544.918
546.694
551.592
557.045
560.664
561.178
558.421
553.015
546.016
538.546
531.473
525.256
519.996
515.598
511.925
508.878
506.399
504.444
502.962
501.884
501.127
500.614
500.281
500.077
499.967
499.921
499.916
499.93
499.95
499.968
499.982
499.992
500.001
500.012
500.026
500.043
500.062
500.083
500.103
500.122
500.139
500.153
500.165
500.175
500.182
500.187
500.191
500.194
500.196
500.198
500.199
500.201
500.203
500.205
500.207
500.209
500.212
500.214
500.216
500.218
500.219
500.22
500.221
500.221
500.22
500.219
500.216
500.214
500.21
500.206
500.202
500.197
500.191
500.186
500.181
500.175
500.17
500.165
500.161
500.157
500.154
500.151
500.15
500.148
500.148
500.148
500.148
500.149
500.15
500.151
500.153
500.153
500.155
500.155
500.201
500.567
500.638
500.585
500.472
500.344
500.256
500.235
500.253
500.298
500.392
500.537
500.682
500.793
500.935
501.272
501.977
503.185
505.101
508.096
512.591
518.745
526.182
534.023
541.173
546.688
549.978
550.834
549.358
545.872
540.854
534.937
528.886
523.508
519.46
517.048
516.165
516.342
517.014
517.717
518.178
518.348
518.277
518.071
517.8
517.513
517.239
517.018
516.977
517.402
518.797
521.791
526.89
533.798
540.338
542.787
538.609
528.724
516.726
506.582
501.096
501.582
507.911
518.333
529.704
538.937
544.597
546.961
547.708
548.187
548.452
548.894
549.208
549.067
549.433
549.814
549.213
549.158
550.393
550.41
548.165
546.839
549.073
552.698
553.496
550.427
546.422
545.059
547.602
552.68
557.798
560.86
560.793
557.523